# LAMMPS data file written by OVITO Basic 3.10.6

10368 atoms
6912 bonds
3456 angles
2 atom types
1 bond types
1 angle types

-11.73425815 35.20277445 xlo xhi
-11.03035895 33.09107685 ylo yhi
-13.55477775 40.66433325 zlo zhi

Masses

1 1.00794  # H
2 15.9994  # O

Atoms  # full

1 1 2 0.0 5.20574185 -9.27035895 7.93522225
2 1 1 0.0 5.23574185 -8.32035895 7.89522225
3 1 1 0.0 5.66574185 -9.56035895 7.14522225
4 1 2 0.0 9.18574185 -6.56035895 5.57522225
5 1 1 0.0 8.29574185 -6.21035895 5.61522225
6 1 1 0.0 9.60574185 -6.22035895 6.36522225
7 1 2 0.0 10.49574185 -5.64035895 7.82522225
8 1 1 0.0 10.03574185 -5.93035895 8.61522225
9 1 1 0.0 10.46574185 -4.69035895 7.85522225
10 1 2 0.0 9.13574185 -6.46035895 10.08522225
11 1 1 0.0 9.59574185 -6.19035895 10.87522225
12 1 1 0.0 9.14574185 -7.42035895 10.12522225
13 1 2 0.0 6.55574185 -10.12035895 10.19522225
14 1 1 0.0 6.54574185 -11.07035895 10.14522225
15 1 1 0.0 6.09574185 -9.84035895 9.39522225
16 1 2 0.0 6.51574185 -5.60035895 10.12522225
17 1 1 0.0 6.55574185 -4.64035895 10.13522225
18 1 1 0.0 7.43574185 -5.87035895 10.12522225
19 1 2 0.0 9.10574185 -9.32035895 5.58522225
20 1 1 0.0 9.56574185 -9.60035895 6.38522225
21 1 1 0.0 9.13574185 -8.36035895 5.62522225
22 1 2 0.0 9.16574185 -9.22035895 10.09522225
23 1 1 0.0 8.26574185 -9.55035895 10.13522225
24 1 1 0.0 9.57574185 -9.56035895 10.88522225
25 1 2 0.0 5.20574185 -6.49035895 12.38522225
26 1 1 0.0 5.69574185 -6.17035895 13.13522225
27 1 1 0.0 5.69574185 -6.16035895 11.62522225
28 1 2 0.0 5.20574185 -6.51035895 7.87522225
29 1 1 0.0 5.68574185 -6.18035895 8.63522225
30 1 1 0.0 5.68574185 -6.18035895 7.11522225
31 1 2 0.0 6.59574185 -5.62035895 5.66522225
32 1 1 0.0 6.56574185 -4.66035895 5.64522225
33 1 1 0.0 6.13574185 -5.89035895 4.86522225
34 1 2 0.0 6.49574185 -10.21035895 5.68522225
35 1 1 0.0 6.08574185 -9.87035895 4.89522225
36 1 1 0.0 7.39574185 -9.88035895 5.65522225
37 1 2 0.0 10.40574185 -10.24035895 7.84522225
38 1 1 0.0 11.29574185 -9.89035895 7.87522225
39 1 1 0.0 9.98574185 -9.90035895 8.63522225
40 1 2 0.0 10.45574185 -10.15035895 12.34522225
41 1 1 0.0 9.99574185 -9.88035895 13.14522225
42 1 1 0.0 10.44574185 -11.10035895 12.38522225
43 1 2 0.0 10.41574185 -5.63035895 12.37522225
44 1 1 0.0 10.44574185 -4.67035895 12.38522225
45 1 1 0.0 11.33574185 -5.89035895 12.37522225
46 1 2 0.0 5.20574185 -9.25035895 12.43522225
47 1 1 0.0 5.66574185 -9.54035895 11.64522225
48 1 1 0.0 5.23574185 -8.30035895 12.39522225
49 1 2 0.0 -10.38425815 -1.84035895 -10.14477775
50 1 1 0.0 -11.27425815 -2.19035895 -10.16477775
51 1 1 0.0 -9.96425815 -2.19035895 -10.93477775
52 1 2 0.0 -6.45425815 0.79964105 -12.49477775
53 1 1 0.0 -6.03425815 1.12964105 -11.70477775
54 1 1 0.0 -7.35425815 1.13964105 -12.46477775
55 1 2 0.0 -5.14425815 1.70964105 -10.24477775
56 1 1 0.0 -5.60425815 1.42964105 -9.45477775
57 1 1 0.0 -5.17425815 2.66964105 -10.21477775
58 1 2 0.0 -6.43425815 0.88964105 -7.94477775
59 1 1 0.0 -7.34425815 1.17964105 -7.94477775
60 1 1 0.0 -6.48425815 -0.07035895 -7.94477775
61 1 2 0.0 -9.14425815 -2.84035895 -7.88477775
62 1 1 0.0 -8.24425815 -2.51035895 -7.92477775
63 1 1 0.0 -9.56425815 -2.50035895 -8.67477775
64 1 2 0.0 -9.02425815 1.82964105 -7.94477775
65 1 1 0.0 -9.50425815 1.49964105 -7.19477775
66 1 1 0.0 -9.50425815 1.48964105 -8.70477775
67 1 2 0.0 -6.53425815 -1.96035895 -12.39477775
68 1 1 0.0 -6.08425815 -2.24035895 -13.18477775
69 1 1 0.0 -6.51425815 -1.01035895 -12.42477775
70 1 2 0.0 -6.56425815 -1.87035895 -7.93477775
71 1 1 0.0 -6.08425815 -2.22035895 -8.68477775
72 1 1 0.0 -6.08425815 -2.21035895 -7.17477775
73 1 2 0.0 -10.41425815 0.92964105 -5.73477775
74 1 1 0.0 -9.95425815 1.20964105 -4.94477775
75 1 1 0.0 -10.40425815 -0.02035895 -5.70477775
76 1 2 0.0 -10.33425815 0.91964105 -10.19477775
77 1 1 0.0 -11.24425815 1.18964105 -10.19477775
78 1 1 0.0 -10.36425815 -0.04035895 -10.19477775
79 1 2 0.0 -9.04425815 1.73964105 -12.49477775
80 1 1 0.0 -9.08425815 2.68964105 -12.46477775
81 1 1 0.0 -9.50425815 1.45964105 -11.70477775
82 1 2 0.0 -9.17425815 -2.78035895 -12.43477775
83 1 1 0.0 -8.25425815 -2.50035895 -12.43477775
84 1 1 0.0 -9.12425815 -3.74035895 -12.44477775
85 1 2 0.0 -5.19425815 -2.81035895 -10.13477775
86 1 1 0.0 -5.64425815 -2.53035895 -10.93477775
87 1 1 0.0 -5.19425815 -3.77035895 -10.17477775
88 1 2 0.0 -5.27425815 -2.79035895 -5.67477775
89 1 1 0.0 -5.21425815 -3.75035895 -5.68477775
90 1 1 0.0 -4.36425815 -2.50035895 -5.67477775
91 1 2 0.0 -5.12425815 1.79964105 -5.69477775
92 1 1 0.0 -5.59425815 1.46964105 -4.93477775
93 1 1 0.0 -5.60425815 1.46964105 -6.45477775
94 1 2 0.0 -10.38425815 -1.82035895 -5.63477775
95 1 1 0.0 -11.27425815 -2.17035895 -5.66477775
96 1 1 0.0 -9.96425815 -2.17035895 -6.42477775
97 1 2 0.0 5.26574185 5.50964105 7.84522225
98 1 1 0.0 4.36574185 5.15964105 7.87522225
99 1 1 0.0 5.67574185 5.16964105 8.63522225
100 1 2 0.0 9.21574185 8.21964105 5.62522225
101 1 1 0.0 8.30574185 8.50964105 5.62522225
102 1 1 0.0 9.16574185 7.26964105 5.62522225
103 1 2 0.0 10.49574185 9.05964105 7.91522225
104 1 1 0.0 10.46574185 10.01964105 7.89522225
105 1 1 0.0 10.03574185 8.77964105 7.12522225
106 1 2 0.0 9.18574185 8.16964105 10.17522225
107 1 1 0.0 8.29574185 8.50964105 10.13522225
108 1 1 0.0 9.60574185 8.49964105 9.38522225
109 1 2 0.0 6.47574185 4.58964105 10.14522225
110 1 1 0.0 7.38574185 4.86964105 10.14522225
111 1 1 0.0 6.51574185 3.62964105 10.13522225
112 1 2 0.0 6.62574185 9.17964105 10.12522225
113 1 1 0.0 6.14574185 8.84964105 10.88522225
114 1 1 0.0 6.14574185 8.84964105 9.36522225
115 1 2 0.0 9.08574185 5.46964105 5.63522225
116 1 1 0.0 9.56574185 5.11964105 6.38522225
117 1 1 0.0 9.55574185 5.12964105 4.87522225
118 1 2 0.0 9.10574185 5.40964105 10.18522225
119 1 1 0.0 9.13574185 6.35964105 10.14522225
120 1 1 0.0 9.56574185 5.11964105 9.39522225
121 1 2 0.0 5.28574185 8.20964105 12.33522225
122 1 1 0.0 5.69574185 8.53964105 13.13522225
123 1 1 0.0 4.38574185 8.53964105 12.37522225
124 1 2 0.0 5.23574185 8.26964105 7.92522225
125 1 1 0.0 5.24574185 7.30964105 7.89522225
126 1 1 0.0 5.69574185 8.53964105 7.12522225
127 1 2 0.0 6.59574185 9.08964105 5.66522225
128 1 1 0.0 6.56574185 10.04964105 5.64522225
129 1 1 0.0 6.13574185 8.81964105 4.86522225
130 1 2 0.0 6.49574185 4.48964105 5.59522225
131 1 1 0.0 6.08574185 4.83964105 6.38522225
132 1 1 0.0 7.39574185 4.81964105 5.62522225
133 1 2 0.0 10.37574185 4.53964105 7.89522225
134 1 1 0.0 10.42574185 3.58964105 7.88522225
135 1 1 0.0 11.28574185 4.82964105 7.88522225
136 1 2 0.0 10.45574185 4.55964105 12.44522225
137 1 1 0.0 9.99574185 4.83964105 11.64522225
138 1 1 0.0 10.44574185 3.59964105 12.39522225
139 1 2 0.0 10.44574185 9.15964105 12.42522225
140 1 1 0.0 11.34574185 8.82964105 12.38522225
141 1 1 0.0 10.02574185 8.81964105 11.62522225
142 1 2 0.0 5.20574185 5.44964105 12.43522225
143 1 1 0.0 5.66574185 5.16964105 11.64522225
144 1 1 0.0 5.23574185 6.40964105 12.39522225
145 1 2 0.0 5.26574185 -1.84035895 -10.14477775
146 1 1 0.0 5.67574185 -2.19035895 -10.93477775
147 1 1 0.0 4.36574185 -2.19035895 -10.16477775
148 1 2 0.0 9.18574185 0.79964105 -12.40477775
149 1 1 0.0 8.29574185 1.13964105 -12.43477775
150 1 1 0.0 9.60574185 1.12964105 -13.19477775
151 1 2 0.0 10.52574185 1.78964105 -10.20477775
152 1 1 0.0 10.04574185 1.44964105 -10.95477775
153 1 1 0.0 10.04574185 1.44964105 -9.44477775
154 1 2 0.0 9.21574185 0.88964105 -7.94477775
155 1 1 0.0 8.30574185 1.17964105 -7.94477775
156 1 1 0.0 9.16574185 -0.07035895 -7.94477775
157 1 2 0.0 6.55574185 -2.76035895 -7.88477775
158 1 1 0.0 6.09574185 -2.49035895 -8.67477775
159 1 1 0.0 6.54574185 -3.72035895 -7.92477775
160 1 2 0.0 6.62574185 1.82964105 -7.94477775
161 1 1 0.0 6.14574185 1.48964105 -8.70477775
162 1 1 0.0 6.14574185 1.49964105 -7.19477775
163 1 2 0.0 9.10574185 -1.96035895 -12.39477775
164 1 1 0.0 9.13574185 -1.01035895 -12.42477775
165 1 1 0.0 9.56574185 -2.24035895 -13.18477775
166 1 2 0.0 9.16574185 -1.87035895 -7.97477775
167 1 1 0.0 8.26574185 -2.20035895 -7.94477775
168 1 1 0.0 9.57574185 -2.21035895 -7.18477775
169 1 2 0.0 5.28574185 0.85964105 -5.73477775
170 1 1 0.0 4.38574185 1.18964105 -5.69477775
171 1 1 0.0 5.69574185 1.18964105 -4.93477775
172 1 2 0.0 5.23574185 0.91964105 -10.15477775
173 1 1 0.0 5.24574185 -0.04035895 -10.18477775
174 1 1 0.0 5.69574185 1.18964105 -10.94477775
175 1 2 0.0 6.59574185 1.73964105 -12.40477775
176 1 1 0.0 6.56574185 2.68964105 -12.42477775
177 1 1 0.0 6.13574185 1.45964105 -13.20477775
178 1 2 0.0 6.47574185 -2.78035895 -12.43477775
179 1 1 0.0 6.51574185 -3.74035895 -12.44477775
180 1 1 0.0 7.38574185 -2.50035895 -12.43477775
181 1 2 0.0 10.47574185 -2.89035895 -10.18477775
182 1 1 0.0 10.00574185 -2.55035895 -10.94477775
183 1 1 0.0 10.00574185 -2.54035895 -9.42477775
184 1 2 0.0 10.45574185 -2.79035895 -5.72477775
185 1 1 0.0 10.44574185 -3.75035895 -5.69477775
186 1 1 0.0 9.99574185 -2.52035895 -4.92477775
187 1 2 0.0 10.44574185 1.79964105 -5.65477775
188 1 1 0.0 11.34574185 1.47964105 -5.69477775
189 1 1 0.0 10.02574185 1.45964105 -6.44477775
190 1 2 0.0 5.20574185 -1.90035895 -5.63477775
191 1 1 0.0 5.66574185 -2.19035895 -6.42477775
192 1 1 0.0 5.23574185 -0.94035895 -5.67477775
193 1 2 0.0 -2.64425815 5.50964105 7.88522225
194 1 1 0.0 -2.16425815 5.16964105 8.64522225
195 1 1 0.0 -2.16425815 5.16964105 7.13522225
196 1 2 0.0 1.36574185 8.14964105 5.57522225
197 1 1 0.0 1.78574185 8.48964105 6.36522225
198 1 1 0.0 0.47574185 8.49964105 5.61522225
199 1 2 0.0 2.59574185 9.05964105 7.87522225
200 1 1 0.0 2.61574185 10.01964105 7.87522225
201 1 1 0.0 3.51574185 8.79964105 7.87522225
202 1 2 0.0 1.36574185 8.16964105 10.17522225
203 1 1 0.0 0.47574185 8.50964105 10.13522225
204 1 1 0.0 1.78574185 8.49964105 9.38522225
205 1 2 0.0 -1.32425815 4.50964105 10.09522225
206 1 1 0.0 -1.73425815 4.85964105 10.88522225
207 1 1 0.0 -0.42425815 4.83964105 10.13522225
208 1 2 0.0 -1.20425815 9.17964105 10.12522225
209 1 1 0.0 -1.68425815 8.84964105 10.88522225
210 1 1 0.0 -1.68425815 8.84964105 9.36522225
211 1 2 0.0 1.28574185 5.38964105 5.58522225
212 1 1 0.0 1.31574185 6.34964105 5.62522225
213 1 1 0.0 1.74574185 5.10964105 6.38522225
214 1 2 0.0 1.28574185 5.40964105 10.09522225
215 1 1 0.0 1.74574185 5.12964105 10.88522225
216 1 1 0.0 1.31574185 6.35964105 10.12522225
217 1 2 0.0 -2.58425815 8.28964105 12.33522225
218 1 1 0.0 -2.58425815 7.32964105 12.36522225
219 1 1 0.0 -2.13425815 8.55964105 13.13522225
220 1 2 0.0 -2.50425815 8.26964105 7.87522225
221 1 1 0.0 -2.54425815 7.30964105 7.87522225
222 1 1 0.0 -3.42425815 8.54964105 7.87522225
223 1 2 0.0 -1.22425815 9.08964105 5.57522225
224 1 1 0.0 -1.25425815 10.04964105 5.60522225
225 1 1 0.0 -1.68425815 8.80964105 6.36522225
226 1 2 0.0 -1.35425815 4.56964105 5.63522225
227 1 1 0.0 -1.30425815 3.60964105 5.63522225
228 1 1 0.0 -0.43425815 4.84964105 5.63522225
229 1 2 0.0 2.62574185 4.53964105 7.84522225
230 1 1 0.0 2.17574185 4.81964105 8.63522225
231 1 1 0.0 2.61574185 3.58964105 7.88522225
232 1 2 0.0 2.57574185 4.48964105 12.34522225
233 1 1 0.0 3.46574185 4.82964105 12.38522225
234 1 1 0.0 2.16574185 4.81964105 13.14522225
235 1 2 0.0 2.67574185 9.07964105 12.42522225
236 1 1 0.0 2.21574185 8.79964105 11.63522225
237 1 1 0.0 2.63574185 10.03964105 12.39522225
238 1 2 0.0 -2.56425815 5.52964105 12.34522225
239 1 1 0.0 -2.14425815 5.18964105 13.13522225
240 1 1 0.0 -3.45425815 5.17964105 12.37522225
241 1 2 0.0 -10.38425815 -9.20035895 -1.10477775
242 1 1 0.0 -11.27425815 -9.54035895 -1.13477775
243 1 1 0.0 -9.96425815 -9.54035895 -1.89477775
244 1 2 0.0 -6.51425815 -6.48035895 -3.45477775
245 1 1 0.0 -6.05425815 -6.20035895 -2.66477775
246 1 1 0.0 -6.49425815 -7.44035895 -3.41477775
247 1 2 0.0 -5.22425815 -5.64035895 -1.16477775
248 1 1 0.0 -5.20425815 -4.69035895 -1.15477775
249 1 1 0.0 -4.30425815 -5.91035895 -1.16477775
250 1 2 0.0 -6.51425815 -6.46035895 1.13522225
251 1 1 0.0 -6.49425815 -7.42035895 1.10522225
252 1 1 0.0 -6.05425815 -6.19035895 0.34522225
253 1 2 0.0 -9.06425815 -10.19035895 1.10522225
254 1 1 0.0 -9.54425815 -9.85035895 0.34522225
255 1 1 0.0 -9.54425815 -9.85035895 1.86522225
256 1 2 0.0 -9.12425815 -5.60035895 1.08522225
257 1 1 0.0 -9.09425815 -4.64035895 1.09522225
258 1 1 0.0 -8.21425815 -5.87035895 1.08522225
259 1 2 0.0 -6.48425815 -9.24035895 -3.35477775
260 1 1 0.0 -6.07425815 -9.57035895 -4.15477775
261 1 1 0.0 -7.38425815 -9.57035895 -3.39477775
262 1 2 0.0 -6.48425815 -9.22035895 1.05522225
263 1 1 0.0 -7.38425815 -9.55035895 1.09522225
264 1 1 0.0 -6.07425815 -9.56035895 1.85522225
265 1 2 0.0 -10.35425815 -6.49035895 3.39522225
266 1 1 0.0 -9.94425815 -6.16035895 2.59522225
267 1 1 0.0 -11.25425815 -6.17035895 3.34522225
268 1 2 0.0 -10.41425815 -6.44035895 -1.20477775
269 1 1 0.0 -10.39425815 -7.39035895 -1.16477775
270 1 1 0.0 -9.95425815 -6.16035895 -0.41477775
271 1 2 0.0 -9.10425815 -5.54035895 -3.46477775
272 1 1 0.0 -8.21425815 -5.89035895 -3.42477775
273 1 1 0.0 -9.52425815 -5.87035895 -2.66477775
274 1 2 0.0 -9.09425815 -10.14035895 -3.35477775
275 1 1 0.0 -9.54425815 -9.85035895 -4.14477775
276 1 1 0.0 -9.10425815 -11.09035895 -3.39477775
277 1 2 0.0 -5.16425815 -10.24035895 -1.14477775
278 1 1 0.0 -5.64425815 -9.89035895 -0.38477775
279 1 1 0.0 -5.64425815 -9.90035895 -1.90477775
280 1 2 0.0 -5.19425815 -10.15035895 3.31522225
281 1 1 0.0 -5.20425815 -11.10035895 3.34522225
282 1 1 0.0 -5.64425815 -9.88035895 4.11522225
283 1 2 0.0 -5.20425815 -5.55035895 3.38522225
284 1 1 0.0 -4.30425815 -5.87035895 3.34522225
285 1 1 0.0 -5.61425815 -5.89035895 2.59522225
286 1 2 0.0 -10.35425815 -9.25035895 3.35522225
287 1 1 0.0 -10.40425815 -8.30035895 3.35522225
288 1 1 0.0 -11.27425815 -9.53035895 3.35522225
289 1 2 0.0 -10.43425815 5.43964105 -1.10477775
290 1 1 0.0 -9.98425815 5.14964105 -1.89477775
291 1 1 0.0 -10.40425815 6.38964105 -1.14477775
292 1 2 0.0 -6.51425815 8.21964105 -3.45477775
293 1 1 0.0 -6.49425815 7.26964105 -3.41477775
294 1 1 0.0 -6.05425815 8.49964105 -2.66477775
295 1 2 0.0 -5.22425815 9.05964105 -1.16477775
296 1 1 0.0 -5.20425815 10.01964105 -1.15477775
297 1 1 0.0 -4.30425815 8.79964105 -1.16477775
298 1 2 0.0 -6.53425815 8.16964105 1.09522225
299 1 1 0.0 -6.05425815 8.49964105 0.33522225
300 1 1 0.0 -6.05425815 8.49964105 1.84522225
301 1 2 0.0 -9.06425815 4.50964105 1.10522225
302 1 1 0.0 -9.54425815 4.84964105 0.34522225
303 1 1 0.0 -9.54425815 4.85964105 1.86522225
304 1 2 0.0 -9.12425815 9.10964105 1.08522225
305 1 1 0.0 -8.21425815 8.82964105 1.08522225
306 1 1 0.0 -9.09425815 10.06964105 1.09522225
307 1 2 0.0 -6.48425815 5.45964105 -3.35477775
308 1 1 0.0 -6.07425815 5.12964105 -4.15477775
309 1 1 0.0 -7.38425815 5.12964105 -3.39477775
310 1 2 0.0 -6.45425815 5.40964105 1.10522225
311 1 1 0.0 -6.49425815 6.35964105 1.09522225
312 1 1 0.0 -7.37425815 5.13964105 1.10522225
313 1 2 0.0 -10.35425815 8.20964105 3.39522225
314 1 1 0.0 -9.94425815 8.54964105 2.59522225
315 1 1 0.0 -11.25425815 8.53964105 3.34522225
316 1 2 0.0 -10.35425815 8.19964105 -1.20477775
317 1 1 0.0 -9.94425815 8.52964105 -0.41477775
318 1 1 0.0 -11.25425815 8.51964105 -1.16477775
319 1 2 0.0 -9.10425815 9.16964105 -3.46477775
320 1 1 0.0 -8.21425815 8.81964105 -3.42477775
321 1 1 0.0 -9.52425815 8.83964105 -2.66477775
322 1 2 0.0 -9.09425815 4.56964105 -3.35477775
323 1 1 0.0 -9.54425815 4.84964105 -4.14477775
324 1 1 0.0 -9.10425815 3.60964105 -3.39477775
325 1 2 0.0 -5.16425815 4.46964105 -1.14477775
326 1 1 0.0 -5.64425815 4.80964105 -0.38477775
327 1 1 0.0 -5.64425815 4.80964105 -1.90477775
328 1 2 0.0 -5.24425815 4.48964105 3.40522225
329 1 1 0.0 -4.35425815 4.82964105 3.37522225
330 1 1 0.0 -5.66425815 4.81964105 2.61522225
331 1 2 0.0 -5.20425815 9.15964105 3.29522225
332 1 1 0.0 -5.61425815 8.81964105 4.08522225
333 1 1 0.0 -4.30425815 8.82964105 3.33522225
334 1 2 0.0 -10.43425815 5.44964105 3.30522225
335 1 1 0.0 -9.98425815 5.16964105 4.10522225
336 1 1 0.0 -10.40425815 6.40964105 3.34522225
337 1 2 0.0 -2.53425815 -9.27035895 -1.14477775
338 1 1 0.0 -2.57425815 -8.32035895 -1.15477775
339 1 1 0.0 -3.45425815 -9.55035895 -1.14477775
340 1 2 0.0 1.36574185 -6.56035895 -3.36477775
341 1 1 0.0 1.78574185 -6.22035895 -4.15477775
342 1 1 0.0 0.47574185 -6.21035895 -3.40477775
343 1 2 0.0 2.70574185 -5.57035895 -1.16477775
344 1 1 0.0 2.21574185 -5.90035895 -0.40477775
345 1 1 0.0 2.21574185 -5.91035895 -1.92477775
346 1 2 0.0 1.31574185 -6.46035895 1.04522225
347 1 1 0.0 1.32574185 -7.42035895 1.08522225
348 1 1 0.0 1.77574185 -6.19035895 1.83522225
349 1 2 0.0 -1.24425815 -10.19035895 1.10522225
350 1 1 0.0 -1.72425815 -9.85035895 1.86522225
351 1 1 0.0 -1.71425815 -9.85035895 0.34522225
352 1 2 0.0 -1.30425815 -5.60035895 1.08522225
353 1 1 0.0 -1.26425815 -4.64035895 1.09522225
354 1 1 0.0 -0.39425815 -5.87035895 1.08522225
355 1 2 0.0 1.36574185 -9.32035895 -3.40477775
356 1 1 0.0 0.44574185 -9.59035895 -3.40477775
357 1 1 0.0 1.33574185 -8.36035895 -3.40477775
358 1 2 0.0 1.33574185 -9.22035895 1.14522225
359 1 1 0.0 1.75574185 -9.57035895 0.35522225
360 1 1 0.0 0.44574185 -9.55035895 1.11522225
361 1 2 0.0 -2.61425815 -6.49035895 3.34522225
362 1 1 0.0 -2.13425815 -6.16035895 2.58522225
363 1 1 0.0 -2.13425815 -6.17035895 4.10522225
364 1 2 0.0 -2.61425815 -6.51035895 -1.16477775
365 1 1 0.0 -2.13425815 -6.18035895 -1.91477775
366 1 1 0.0 -2.13425815 -6.18035895 -0.40477775
367 1 2 0.0 -1.22425815 -5.62035895 -3.37477775
368 1 1 0.0 -1.68425815 -5.89035895 -4.16477775
369 1 1 0.0 -1.25425815 -4.66035895 -3.39477775
370 1 2 0.0 -1.27425815 -10.14035895 -3.44477775
371 1 1 0.0 -1.72425815 -9.86035895 -2.64477775
372 1 1 0.0 -1.28425815 -11.09035895 -3.40477775
373 1 2 0.0 2.62574185 -10.16035895 -1.09477775
374 1 1 0.0 2.62574185 -11.12035895 -1.14477775
375 1 1 0.0 2.17574185 -9.88035895 -1.89477775
376 1 2 0.0 2.65574185 -10.22035895 3.35522225
377 1 1 0.0 2.17574185 -9.89035895 4.11522225
378 1 1 0.0 2.17574185 -9.88035895 2.60522225
379 1 2 0.0 2.59574185 -5.63035895 3.33522225
380 1 1 0.0 2.62574185 -4.67035895 3.34522225
381 1 1 0.0 3.51574185 -5.89035895 3.34522225
382 1 2 0.0 -2.53425815 -9.25035895 3.35522225
383 1 1 0.0 -2.57425815 -8.30035895 3.35522225
384 1 1 0.0 -3.45425815 -9.53035895 3.35522225
385 1 2 0.0 -2.53425815 -1.92035895 -10.18477775
386 1 1 0.0 -3.45425815 -2.20035895 -10.18477775
387 1 1 0.0 -2.57425815 -0.96035895 -10.18477775
388 1 2 0.0 1.36574185 0.79964105 -12.40477775
389 1 1 0.0 1.78574185 1.12964105 -13.19477775
390 1 1 0.0 0.47574185 1.13964105 -12.43477775
391 1 2 0.0 2.61574185 1.77964105 -10.15477775
392 1 1 0.0 2.20574185 1.44964105 -10.94477775
393 1 1 0.0 3.51574185 1.45964105 -10.19477775
394 1 2 0.0 1.28574185 0.80964105 -7.94477775
395 1 1 0.0 1.76574185 1.14964105 -7.18477775
396 1 1 0.0 1.76574185 1.13964105 -8.70477775
397 1 2 0.0 -1.32425815 -2.84035895 -7.88477775
398 1 1 0.0 -0.42425815 -2.51035895 -7.92477775
399 1 1 0.0 -1.73425815 -2.50035895 -8.67477775
400 1 2 0.0 -1.27425815 1.82964105 -7.99477775
401 1 1 0.0 -1.69425815 1.49964105 -7.20477775
402 1 1 0.0 -0.38425815 1.48964105 -7.95477775
403 1 2 0.0 1.36574185 -1.96035895 -12.43477775
404 1 1 0.0 0.44574185 -2.24035895 -12.43477775
405 1 1 0.0 1.33574185 -1.01035895 -12.44477775
406 1 2 0.0 1.28574185 -1.95035895 -7.88477775
407 1 1 0.0 1.74574185 -2.23035895 -8.67477775
408 1 1 0.0 1.31574185 -0.99035895 -7.92477775
409 1 2 0.0 -2.50425815 0.92964105 -5.69477775
410 1 1 0.0 -3.42425815 1.20964105 -5.69477775
411 1 1 0.0 -2.54425815 -0.02035895 -5.68477775
412 1 2 0.0 -2.53425815 0.83964105 -10.24477775
413 1 1 0.0 -3.43425815 1.16964105 -10.20477775
414 1 1 0.0 -2.12425815 1.17964105 -9.44477775
415 1 2 0.0 -1.19425815 1.80964105 -12.45477775
416 1 1 0.0 -1.68425815 1.47964105 -11.69477775
417 1 1 0.0 -1.68425815 1.48964105 -13.21477775
418 1 2 0.0 -1.27425815 -2.78035895 -12.48477775
419 1 1 0.0 -1.72425815 -2.51035895 -11.68477775
420 1 1 0.0 -1.28425815 -3.74035895 -12.44477775
421 1 2 0.0 2.62574185 -2.81035895 -10.13477775
422 1 1 0.0 2.17574185 -2.53035895 -10.93477775
423 1 1 0.0 2.62574185 -3.77035895 -10.17477775
424 1 2 0.0 2.57574185 -2.87035895 -5.63477775
425 1 1 0.0 3.46574185 -2.52035895 -5.66477775
426 1 1 0.0 2.15574185 -2.53035895 -6.42477775
427 1 2 0.0 2.67574185 1.72964105 -5.74477775
428 1 1 0.0 2.64574185 2.68964105 -5.70477775
429 1 1 0.0 2.21574185 1.43964105 -4.95477775
430 1 2 0.0 -2.64425815 -1.82035895 -5.68477775
431 1 1 0.0 -2.17425815 -2.17035895 -4.92477775
432 1 1 0.0 -2.16425815 -2.17035895 -6.43477775
433 1 2 0.0 5.26574185 -9.20035895 -1.10477775
434 1 1 0.0 5.67574185 -9.54035895 -1.89477775
435 1 1 0.0 4.36574185 -9.54035895 -1.13477775
436 1 2 0.0 9.13574185 -6.48035895 -3.45477775
437 1 1 0.0 9.59574185 -6.20035895 -2.66477775
438 1 1 0.0 9.14574185 -7.44035895 -3.41477775
439 1 2 0.0 10.44574185 -5.57035895 -1.21477775
440 1 1 0.0 11.34574185 -5.89035895 -1.16477775
441 1 1 0.0 10.02574185 -5.90035895 -0.41477775
442 1 2 0.0 9.18574185 -6.54035895 1.04522225
443 1 1 0.0 8.29574185 -6.19035895 1.08522225
444 1 1 0.0 9.60574185 -6.20035895 1.83522225
445 1 2 0.0 6.55574185 -10.12035895 1.15522225
446 1 1 0.0 6.54574185 -11.07035895 1.11522225
447 1 1 0.0 6.09574185 -9.84035895 0.35522225
448 1 2 0.0 6.59574185 -5.60035895 1.13522225
449 1 1 0.0 6.56574185 -4.64035895 1.10522225
450 1 1 0.0 6.13574185 -5.88035895 0.34522225
451 1 2 0.0 9.16574185 -9.24035895 -3.35477775
452 1 1 0.0 9.57574185 -9.57035895 -4.15477775
453 1 1 0.0 8.26574185 -9.57035895 -3.39477775
454 1 2 0.0 9.18574185 -9.30035895 1.10522225
455 1 1 0.0 8.26574185 -9.57035895 1.10522225
456 1 1 0.0 9.15574185 -8.34035895 1.09522225
457 1 2 0.0 5.23574185 -6.42035895 3.38522225
458 1 1 0.0 5.24574185 -7.38035895 3.35522225
459 1 1 0.0 5.69574185 -6.15035895 2.59522225
460 1 2 0.0 5.31574185 -6.44035895 -1.16477775
461 1 1 0.0 4.39574185 -6.16035895 -1.16477775
462 1 1 0.0 5.27574185 -7.39035895 -1.15477775
463 1 2 0.0 6.54574185 -5.54035895 -3.46477775
464 1 1 0.0 6.12574185 -5.87035895 -2.66477775
465 1 1 0.0 7.43574185 -5.89035895 -3.42477775
466 1 2 0.0 6.55574185 -10.14035895 -3.35477775
467 1 1 0.0 6.54574185 -11.09035895 -3.39477775
468 1 1 0.0 6.10574185 -9.85035895 -4.14477775
469 1 2 0.0 10.47574185 -10.24035895 -1.14477775
470 1 1 0.0 10.00574185 -9.89035895 -0.38477775
471 1 1 0.0 10.00574185 -9.90035895 -1.90477775
472 1 2 0.0 10.47574185 -10.22035895 3.35522225
473 1 1 0.0 10.00574185 -9.88035895 2.60522225
474 1 1 0.0 10.00574185 -9.89035895 4.11522225
475 1 2 0.0 10.49574185 -5.62035895 3.29522225
476 1 1 0.0 10.46574185 -4.67035895 3.33522225
477 1 1 0.0 10.04574185 -5.91035895 4.08522225
478 1 2 0.0 5.26574185 -9.18035895 3.40522225
479 1 1 0.0 4.36574185 -9.52035895 3.37522225
480 1 1 0.0 5.67574185 -9.52035895 2.61522225
481 1 2 0.0 5.28574185 -1.92035895 7.88522225
482 1 1 0.0 5.24574185 -0.96035895 7.88522225
483 1 1 0.0 4.37574185 -2.20035895 7.88522225
484 1 2 0.0 9.21574185 0.86964105 5.62522225
485 1 1 0.0 9.16574185 -0.09035895 5.62522225
486 1 1 0.0 8.30574185 1.15964105 5.62522225
487 1 2 0.0 10.44574185 1.77964105 7.91522225
488 1 1 0.0 11.34574185 1.45964105 7.87522225
489 1 1 0.0 10.02574185 1.44964105 7.12522225
490 1 2 0.0 9.13574185 0.88964105 10.17522225
491 1 1 0.0 9.59574185 1.15964105 9.38522225
492 1 1 0.0 9.14574185 -0.07035895 10.14522225
493 1 2 0.0 6.57574185 -2.84035895 10.14522225
494 1 1 0.0 6.10574185 -2.50035895 9.38522225
495 1 1 0.0 6.10574185 -2.49035895 10.89522225
496 1 2 0.0 6.54574185 1.82964105 10.07522225
497 1 1 0.0 7.43574185 1.48964105 10.11522225
498 1 1 0.0 6.12574185 1.49964105 10.87522225
499 1 2 0.0 9.16574185 -1.89035895 5.68522225
500 1 1 0.0 8.26574185 -2.22035895 5.64522225
501 1 1 0.0 9.57574185 -2.22035895 4.88522225
502 1 2 0.0 9.16574185 -1.87035895 10.18522225
503 1 1 0.0 8.26574185 -2.20035895 10.15522225
504 1 1 0.0 9.57574185 -2.22035895 9.39522225
505 1 2 0.0 5.31574185 0.92964105 12.38522225
506 1 1 0.0 4.39574185 1.20964105 12.37522225
507 1 1 0.0 5.27574185 -0.02035895 12.38522225
508 1 2 0.0 5.28574185 0.83964105 7.82522225
509 1 1 0.0 5.70574185 1.17964105 8.62522225
510 1 1 0.0 4.38574185 1.16964105 7.87522225
511 1 2 0.0 6.59574185 1.73964105 5.57522225
512 1 1 0.0 6.13574185 1.45964105 6.36522225
513 1 1 0.0 6.56574185 2.68964105 5.60522225
514 1 2 0.0 6.57574185 -2.86035895 5.63522225
515 1 1 0.0 6.10574185 -2.51035895 6.39522225
516 1 1 0.0 6.10574185 -2.51035895 4.88522225
517 1 2 0.0 10.40574185 -2.89035895 7.93522225
518 1 1 0.0 9.98574185 -2.55035895 7.14522225
519 1 1 0.0 11.29574185 -2.54035895 7.90522225
520 1 2 0.0 10.40574185 -2.87035895 12.44522225
521 1 1 0.0 9.98574185 -2.53035895 11.64522225
522 1 1 0.0 11.29574185 -2.52035895 12.40522225
523 1 2 0.0 10.44574185 1.79964105 12.42522225
524 1 1 0.0 11.34574185 1.47964105 12.38522225
525 1 1 0.0 10.02574185 1.45964105 11.62522225
526 1 2 0.0 5.26574185 -1.82035895 12.34522225
527 1 1 0.0 4.36574185 -2.17035895 12.37522225
528 1 1 0.0 5.67574185 -2.17035895 13.13522225
529 1 2 0.0 5.20574185 5.43964105 -1.10477775
530 1 1 0.0 5.23574185 6.38964105 -1.14477775
531 1 1 0.0 5.66574185 5.14964105 -1.89477775
532 1 2 0.0 9.13574185 8.21964105 -3.36477775
533 1 1 0.0 9.14574185 7.26964105 -3.40477775
534 1 1 0.0 9.59574185 8.49964105 -4.16477775
535 1 2 0.0 10.49574185 9.05964105 -1.11477775
536 1 1 0.0 10.03574185 8.77964105 -1.90477775
537 1 1 0.0 10.46574185 10.01964105 -1.14477775
538 1 2 0.0 9.10574185 8.16964105 1.09522225
539 1 1 0.0 9.58574185 8.49964105 0.33522225
540 1 1 0.0 9.58574185 8.49964105 1.84522225
541 1 2 0.0 6.49574185 4.50964105 1.15522225
542 1 1 0.0 7.39574185 4.83964105 1.11522225
543 1 1 0.0 6.08574185 4.84964105 0.35522225
544 1 2 0.0 6.54574185 9.18964105 1.04522225
545 1 1 0.0 7.43574185 8.83964105 1.07522225
546 1 1 0.0 6.12574185 8.84964105 1.83522225
547 1 2 0.0 9.08574185 5.46964105 -3.40477775
548 1 1 0.0 9.55574185 5.12964105 -4.16477775
549 1 1 0.0 9.56574185 5.11964105 -2.64477775
550 1 2 0.0 9.10574185 5.40964105 1.05522225
551 1 1 0.0 9.56574185 5.12964105 1.85522225
552 1 1 0.0 9.13574185 6.35964105 1.08522225
553 1 2 0.0 5.31574185 8.28964105 3.34522225
554 1 1 0.0 5.27574185 7.32964105 3.34522225
555 1 1 0.0 4.39574185 8.55964105 3.34522225
556 1 2 0.0 5.28574185 8.19964105 -1.20477775
557 1 1 0.0 5.70574185 8.52964105 -0.41477775
558 1 1 0.0 4.38574185 8.51964105 -1.16477775
559 1 2 0.0 6.54574185 9.16964105 -3.46477775
560 1 1 0.0 7.43574185 8.81964105 -3.42477775
561 1 1 0.0 6.12574185 8.83964105 -2.66477775
562 1 2 0.0 6.47574185 4.56964105 -3.39477775
563 1 1 0.0 6.51574185 3.60964105 -3.40477775
564 1 1 0.0 7.38574185 4.84964105 -3.39477775
565 1 2 0.0 10.40574185 4.46964105 -1.19477775
566 1 1 0.0 11.29574185 4.80964105 -1.16477775
567 1 1 0.0 9.98574185 4.80964105 -0.40477775
568 1 2 0.0 10.37574185 4.55964105 3.35522225
569 1 1 0.0 11.28574185 4.84964105 3.35522225
570 1 1 0.0 10.42574185 3.59964105 3.35522225
571 1 2 0.0 10.49574185 9.07964105 3.29522225
572 1 1 0.0 10.46574185 10.03964105 3.33522225
573 1 1 0.0 10.04574185 8.79964105 4.08522225
574 1 2 0.0 5.18574185 5.52964105 3.35522225
575 1 1 0.0 5.65574185 5.17964105 2.59522225
576 1 1 0.0 5.65574185 5.17964105 4.11522225
577 1 2 0.0 -10.43425815 -1.92035895 7.93522225
578 1 1 0.0 -9.98425815 -2.20035895 7.14522225
579 1 1 0.0 -10.40425815 -0.96035895 7.89522225
580 1 2 0.0 -6.51425815 0.86964105 5.66522225
581 1 1 0.0 -6.05425815 1.14964105 4.87522225
582 1 1 0.0 -6.49425815 -0.09035895 5.63522225
583 1 2 0.0 -5.20425815 1.77964105 7.91522225
584 1 1 0.0 -5.61425815 1.44964105 7.12522225
585 1 1 0.0 -4.30425815 1.45964105 7.87522225
586 1 2 0.0 -6.53425815 0.80964105 10.12522225
587 1 1 0.0 -6.05425815 1.14964105 10.88522225
588 1 1 0.0 -6.05425815 1.13964105 9.37522225
589 1 2 0.0 -9.06425815 -2.84035895 10.14522225
590 1 1 0.0 -9.54425815 -2.50035895 9.38522225
591 1 1 0.0 -9.54425815 -2.49035895 10.89522225
592 1 2 0.0 -9.12425815 1.75964105 10.12522225
593 1 1 0.0 -9.09425815 2.70964105 10.13522225
594 1 1 0.0 -8.21425815 1.47964105 10.12522225
595 1 2 0.0 -6.48425815 -1.89035895 5.58522225
596 1 1 0.0 -7.38425815 -2.22035895 5.62522225
597 1 1 0.0 -6.07425815 -2.23035895 6.38522225
598 1 2 0.0 -6.45425815 -1.95035895 10.14522225
599 1 1 0.0 -7.37425815 -2.22035895 10.14522225
600 1 1 0.0 -6.49425815 -0.99035895 10.13522225
601 1 2 0.0 -10.43425815 0.85964105 12.38522225
602 1 1 0.0 -9.95425815 1.18964105 11.62522225
603 1 1 0.0 -9.95425815 1.18964105 13.13522225
604 1 2 0.0 -10.43425815 0.83964105 7.87522225
605 1 1 0.0 -9.95425815 1.16964105 7.11522225
606 1 1 0.0 -9.95425815 1.17964105 8.63522225
607 1 2 0.0 -9.12425815 1.73964105 5.61522225
608 1 1 0.0 -9.09425815 2.68964105 5.62522225
609 1 1 0.0 -8.21425815 1.45964105 5.62522225
610 1 2 0.0 -9.09425815 -2.78035895 5.68522225
611 1 1 0.0 -9.54425815 -2.50035895 4.88522225
612 1 1 0.0 -9.10425815 -3.74035895 5.63522225
613 1 2 0.0 -5.19425815 -2.81035895 7.84522225
614 1 1 0.0 -5.20425815 -3.77035895 7.88522225
615 1 1 0.0 -5.64425815 -2.53035895 8.63522225
616 1 2 0.0 -5.24425815 -2.87035895 12.44522225
617 1 1 0.0 -5.66425815 -2.53035895 11.64522225
618 1 1 0.0 -4.35425815 -2.52035895 12.40522225
619 1 2 0.0 -5.14425815 1.72964105 12.33522225
620 1 1 0.0 -5.60425815 1.43964105 13.12522225
621 1 1 0.0 -5.18425815 2.68964105 12.36522225
622 1 2 0.0 -10.43425815 -1.90035895 12.34522225
623 1 1 0.0 -9.98425815 -2.18035895 13.14522225
624 1 1 0.0 -10.40425815 -0.94035895 12.38522225
625 1 2 0.0 -2.56425815 5.50964105 -1.19477775
626 1 1 0.0 -2.14425815 5.16964105 -0.40477775
627 1 1 0.0 -3.45425815 5.15964105 -1.16477775
628 1 2 0.0 1.39574185 8.21964105 -3.41477775
629 1 1 0.0 1.34574185 7.26964105 -3.40477775
630 1 1 0.0 0.47574185 8.50964105 -3.41477775
631 1 2 0.0 2.70574185 9.13964105 -1.16477775
632 1 1 0.0 2.21574185 8.79964105 -1.92477775
633 1 1 0.0 2.21574185 8.80964105 -0.40477775
634 1 2 0.0 1.31574185 8.23964105 1.04522225
635 1 1 0.0 1.77574185 8.51964105 1.83522225
636 1 1 0.0 1.32574185 7.28964105 1.08522225